calculator: aims
length_unit: angstrom
nqpoint: 255    
npath: 5      
segment_nqpoint:
- 51
- 51
- 51
- 51
- 51
reciprocal_lattice:
- [  -0.15810583,   0.15810583,   0.15810583 ] # a*
- [   0.15810583,  -0.15810583,   0.15810583 ] # b*
- [   0.15810583,   0.15810583,  -0.15810583 ] # c*
natom: 2      
lattice:
- [     0.000000000000000,     3.162438790000000,     3.162438790000000 ] # a
- [     3.162438790000000,     0.000000000000000,     3.162438790000000 ] # b
- [     3.162438790000000,     3.162438790000000,     0.000000000000000 ] # c
points:
- symbol: Ba # 1
  coordinates: [  0.000000000000000,  0.000000000000000,  0.000000000000000 ]
  mass: 137.327000
- symbol: S  # 2
  coordinates: [  0.500000000000000,  0.500000000000000,  0.500000000000000 ]
  mass: 32.065000

phonon:
- q-position: [    0.0000000,    0.0000000,    0.5000000 ]
  distance:    0.0000000
  band:
  - # 1
    frequency:    2.2392009751
  - # 2
    frequency:    2.2392009751
  - # 3
    frequency:    4.0493756586
  - # 4
    frequency:    5.0283386634
  - # 5
    frequency:    5.0283386634
  - # 6
    frequency:    6.7315281763

- q-position: [    0.0000000,    0.0000000,    0.4900000 ]
  distance:    0.0027385
  band:
  - # 1
    frequency:    2.2381904997
  - # 2
    frequency:    2.2381904997
  - # 3
    frequency:    4.0475466820
  - # 4
    frequency:    5.0276994768
  - # 5
    frequency:    5.0276994768
  - # 6
    frequency:    6.7295122998

- q-position: [    0.0000000,    0.0000000,    0.4800000 ]
  distance:    0.0054769
  band:
  - # 1
    frequency:    2.2351593289
  - # 2
    frequency:    2.2351593289
  - # 3
    frequency:    4.0420607952
  - # 4
    frequency:    5.0257843970
  - # 5
    frequency:    5.0257843970
  - # 6
    frequency:    6.7234697422

- q-position: [    0.0000000,    0.0000000,    0.4700000 ]
  distance:    0.0082154
  band:
  - # 1
    frequency:    2.2301082317
  - # 2
    frequency:    2.2301082317
  - # 3
    frequency:    4.0329211210
  - # 4
    frequency:    5.0226008558
  - # 5
    frequency:    5.0226008558
  - # 6
    frequency:    6.7134157275

- q-position: [    0.0000000,    0.0000000,    0.4600000 ]
  distance:    0.0109539
  band:
  - # 1
    frequency:    2.2230385019
  - # 2
    frequency:    2.2230385019
  - # 3
    frequency:    4.0201328435
  - # 4
    frequency:    5.0181612147
  - # 5
    frequency:    5.0181612147
  - # 6
    frequency:    6.6993756604

- q-position: [    0.0000000,    0.0000000,    0.4500000 ]
  distance:    0.0136924
  band:
  - # 1
    frequency:    2.2139519750
  - # 2
    frequency:    2.2139519750
  - # 3
    frequency:    4.0037031765
  - # 4
    frequency:    5.0124827263
  - # 5
    frequency:    5.0124827263
  - # 6
    frequency:    6.6813851715

- q-position: [    0.0000000,    0.0000000,    0.4400000 ]
  distance:    0.0164308
  band:
  - # 1
    frequency:    2.2028510541
  - # 2
    frequency:    2.2028510541
  - # 3
    frequency:    3.9836413214
  - # 4
    frequency:    5.0055874814
  - # 5
    frequency:    5.0055874814
  - # 6
    frequency:    6.6594901818

- q-position: [    0.0000000,    0.0000000,    0.4300000 ]
  distance:    0.0191693
  band:
  - # 1
    frequency:    2.1897387420
  - # 2
    frequency:    2.1897387420
  - # 3
    frequency:    3.9599584132
  - # 4
    frequency:    4.9975023393
  - # 5
    frequency:    4.9975023393
  - # 6
    frequency:    6.6337469826

- q-position: [    0.0000000,    0.0000000,    0.4200000 ]
  distance:    0.0219078
  band:
  - # 1
    frequency:    2.1746186821
  - # 2
    frequency:    2.1746186821
  - # 3
    frequency:    3.9326674570
  - # 4
    frequency:    4.9882588419
  - # 5
    frequency:    4.9882588419
  - # 6
    frequency:    6.6042223329

- q-position: [    0.0000000,    0.0000000,    0.4100000 ]
  distance:    0.0246463
  band:
  - # 1
    frequency:    2.1574952078
  - # 2
    frequency:    2.1574952078
  - # 3
    frequency:    3.9017832561
  - # 4
    frequency:    4.9778931114
  - # 5
    frequency:    4.9778931114
  - # 6
    frequency:    6.5709935709

- q-position: [    0.0000000,    0.0000000,    0.4000000 ]
  distance:    0.0273847
  band:
  - # 1
    frequency:    2.1383734006
  - # 2
    frequency:    2.1383734006
  - # 3
    frequency:    3.8673223324
  - # 4
    frequency:    4.9664457302
  - # 5
    frequency:    4.9664457302
  - # 6
    frequency:    6.5341487388

- q-position: [    0.0000000,    0.0000000,    0.3900000 ]
  distance:    0.0301232
  band:
  - # 1
    frequency:    2.1172591569
  - # 2
    frequency:    2.1172591569
  - # 3
    frequency:    3.8293028425
  - # 4
    frequency:    4.9539616039
  - # 5
    frequency:    4.9539616039
  - # 6
    frequency:    6.4937867185

- q-position: [    0.0000000,    0.0000000,    0.3800000 ]
  distance:    0.0328617
  band:
  - # 1
    frequency:    2.0941592652
  - # 2
    frequency:    2.0941592652
  - # 3
    frequency:    3.7877444916
  - # 4
    frequency:    4.9404898051
  - # 5
    frequency:    4.9404898051
  - # 6
    frequency:    6.4500173758

- q-position: [    0.0000000,    0.0000000,    0.3700000 ]
  distance:    0.0356002
  band:
  - # 1
    frequency:    2.0690814920
  - # 2
    frequency:    2.0690814920
  - # 3
    frequency:    3.7426684470
  - # 4
    frequency:    4.9260833992
  - # 5
    frequency:    4.9260833992
  - # 6
    frequency:    6.4029617097

- q-position: [    0.0000000,    0.0000000,    0.3600000 ]
  distance:    0.0383386
  band:
  - # 1
    frequency:    2.0420346785
  - # 2
    frequency:    2.0420346785
  - # 3
    frequency:    3.6940972569
  - # 4
    frequency:    4.9107992519
  - # 5
    frequency:    4.9107992519
  - # 6
    frequency:    6.3527520028

- q-position: [    0.0000000,    0.0000000,    0.3500000 ]
  distance:    0.0410771
  band:
  - # 1
    frequency:    2.0130288464
  - # 2
    frequency:    2.0130288464
  - # 3
    frequency:    3.6420547766
  - # 4
    frequency:    4.8946978173
  - # 5
    frequency:    4.8946978173
  - # 6
    frequency:    6.2995319675

- q-position: [    0.0000000,    0.0000000,    0.3400000 ]
  distance:    0.0438156
  band:
  - # 1
    frequency:    1.9820753130
  - # 2
    frequency:    1.9820753130
  - # 3
    frequency:    3.5865661083
  - # 4
    frequency:    4.8778429072
  - # 5
    frequency:    4.8778429072
  - # 6
    frequency:    6.2434568829

- q-position: [    0.0000000,    0.0000000,    0.3300000 ]
  distance:    0.0465540
  band:
  - # 1
    frequency:    1.9491868160
  - # 2
    frequency:    1.9491868160
  - # 3
    frequency:    3.5276575590
  - # 4
    frequency:    4.8603014432
  - # 5
    frequency:    4.8603014432
  - # 6
    frequency:    6.1846937160

- q-position: [    0.0000000,    0.0000000,    0.3200000 ]
  distance:    0.0492925
  band:
  - # 1
    frequency:    1.9143776456
  - # 2
    frequency:    1.9143776456
  - # 3
    frequency:    3.4653566226
  - # 4
    frequency:    4.8421431897
  - # 5
    frequency:    4.8421431897
  - # 6
    frequency:    6.1234212179

- q-position: [    0.0000000,    0.0000000,    0.3100000 ]
  distance:    0.0520310
  band:
  - # 1
    frequency:    1.8776637844
  - # 2
    frequency:    1.8776637844
  - # 3
    frequency:    3.3996919929
  - # 4
    frequency:    4.8234404712
  - # 5
    frequency:    4.8234404712
  - # 6
    frequency:    6.0598299883

- q-position: [    0.0000000,    0.0000000,    0.3000000 ]
  distance:    0.0547695
  band:
  - # 1
    frequency:    1.8390630523
  - # 2
    frequency:    1.8390630523
  - # 3
    frequency:    3.3306936140
  - # 4
    frequency:    4.8042678733
  - # 5
    frequency:    4.8042678733
  - # 6
    frequency:    5.9941224968

- q-position: [    0.0000000,    0.0000000,    0.2900000 ]
  distance:    0.0575079
  band:
  - # 1
    frequency:    1.7985952570
  - # 2
    frequency:    1.7985952570
  - # 3
    frequency:    3.2583927746
  - # 4
    frequency:    4.7847019299
  - # 5
    frequency:    4.7847019299
  - # 6
    frequency:    5.9265130513

- q-position: [    0.0000000,    0.0000000,    0.2800000 ]
  distance:    0.0602464
  band:
  - # 1
    frequency:    1.7562823453
  - # 2
    frequency:    1.7562823453
  - # 3
    frequency:    3.1828222532
  - # 4
    frequency:    4.7648207979
  - # 5
    frequency:    4.7648207979
  - # 6
    frequency:    5.8572277023

- q-position: [    0.0000000,    0.0000000,    0.2700000 ]
  distance:    0.0629849
  band:
  - # 1
    frequency:    1.7121485556
  - # 2
    frequency:    1.7121485556
  - # 3
    frequency:    3.1040165203
  - # 4
    frequency:    4.7447039211
  - # 5
    frequency:    4.7447039211
  - # 6
    frequency:    5.7865040701

- q-position: [    0.0000000,    0.0000000,    0.2600000 ]
  distance:    0.0657234
  band:
  - # 1
    frequency:    1.6662205682
  - # 2
    frequency:    1.6662205682
  - # 3
    frequency:    3.0220120022
  - # 4
    frequency:    4.7244316869
  - # 5
    frequency:    4.7244316869
  - # 6
    frequency:    5.7145910838

- q-position: [    0.0000000,    0.0000000,    0.2500000 ]
  distance:    0.0684618
  band:
  - # 1
    frequency:    1.6185276506
  - # 2
    frequency:    1.6185276506
  - # 3
    frequency:    2.9368474107
  - # 4
    frequency:    4.7040850757
  - # 5
    frequency:    4.7040850757
  - # 6
    frequency:    5.6417486197

- q-position: [    0.0000000,    0.0000000,    0.2400000 ]
  distance:    0.0712003
  band:
  - # 1
    frequency:    1.5691017965
  - # 2
    frequency:    1.5691017965
  - # 3
    frequency:    2.8485641385
  - # 4
    frequency:    4.6837453086
  - # 5
    frequency:    4.6837453086
  - # 6
    frequency:    5.5682470270

- q-position: [    0.0000000,    0.0000000,    0.2300000 ]
  distance:    0.0739388
  band:
  - # 1
    frequency:    1.5179778545
  - # 2
    frequency:    1.5179778545
  - # 3
    frequency:    2.7572067218
  - # 4
    frequency:    4.6634934938
  - # 5
    frequency:    4.6634934938
  - # 6
    frequency:    5.4943665316

- q-position: [    0.0000000,    0.0000000,    0.2200000 ]
  distance:    0.0766773
  band:
  - # 1
    frequency:    1.4651936445
  - # 2
    frequency:    1.4651936445
  - # 3
    frequency:    2.6628233621
  - # 4
    frequency:    4.6434102749
  - # 5
    frequency:    4.6434102749
  - # 6
    frequency:    5.4203965069

- q-position: [    0.0000000,    0.0000000,    0.2100000 ]
  distance:    0.0794157
  band:
  - # 1
    frequency:    1.4107900597
  - # 2
    frequency:    1.4107900597
  - # 3
    frequency:    2.5654665035
  - # 4
    frequency:    4.6235754844
  - # 5
    frequency:    4.6235754844
  - # 6
    frequency:    5.3466346051

- q-position: [    0.0000000,    0.0000000,    0.2000000 ]
  distance:    0.0821542
  band:
  - # 1
    frequency:    1.3548111514
  - # 2
    frequency:    1.3548111514
  - # 3
    frequency:    2.4651934498
  - # 4
    frequency:    4.6040678041
  - # 5
    frequency:    4.6040678041
  - # 6
    frequency:    5.2733857435

- q-position: [    0.0000000,    0.0000000,    0.1900000 ]
  distance:    0.0848927
  band:
  - # 1
    frequency:    1.2973041948
  - # 2
    frequency:    1.2973041948
  - # 3
    frequency:    2.3620670095
  - # 4
    frequency:    4.5849644349
  - # 5
    frequency:    4.5849644349
  - # 6
    frequency:    5.2009609411

- q-position: [    0.0000000,    0.0000000,    0.1800000 ]
  distance:    0.0876311
  band:
  - # 1
    frequency:    1.2383197337
  - # 2
    frequency:    1.2383197337
  - # 3
    frequency:    2.2561561483
  - # 4
    frequency:    4.5663407786
  - # 5
    frequency:    4.5663407786
  - # 6
    frequency:    5.1296760037

- q-position: [    0.0000000,    0.0000000,    0.1700000 ]
  distance:    0.0903696
  band:
  - # 1
    frequency:    1.1779116036
  - # 2
    frequency:    1.1779116036
  - # 3
    frequency:    2.1475366288
  - # 4
    frequency:    4.5482701328
  - # 5
    frequency:    4.5482701328
  - # 6
    frequency:    5.0598500586

- q-position: [    0.0000000,    0.0000000,    0.1600000 ]
  distance:    0.0931081
  band:
  - # 1
    frequency:    1.1161369308
  - # 2
    frequency:    1.1161369308
  - # 3
    frequency:    2.0362916139
  - # 4
    frequency:    4.5308234006
  - # 5
    frequency:    4.5308234006
  - # 6
    frequency:    4.9918039392

- q-position: [    0.0000000,    0.0000000,    0.1500000 ]
  distance:    0.0958466
  band:
  - # 1
    frequency:    1.0530561081
  - # 2
    frequency:    1.0530561081
  - # 3
    frequency:    1.9225122102
  - # 4
    frequency:    4.5140688170
  - # 5
    frequency:    4.5140688170
  - # 6
    frequency:    4.9258584225

- q-position: [    0.0000000,    0.0000000,    0.1400000 ]
  distance:    0.0985850
  band:
  - # 1
    frequency:    0.9887327460
  - # 2
    frequency:    0.9887327460
  - # 3
    frequency:    1.8062979304
  - # 4
    frequency:    4.4980716919
  - # 5
    frequency:    4.4980716919
  - # 6
    frequency:    4.8623323247

- q-position: [    0.0000000,    0.0000000,    0.1300000 ]
  distance:    0.1013235
  band:
  - # 1
    frequency:    0.9232336000
  - # 2
    frequency:    0.9232336000
  - # 3
    frequency:    1.6877570510
  - # 4
    frequency:    4.4828941715
  - # 5
    frequency:    4.4828941715
  - # 6
    frequency:    4.8015404589

- q-position: [    0.0000000,    0.0000000,    0.1200000 ]
  distance:    0.1040620
  band:
  - # 1
    frequency:    0.8566284746
  - # 2
    frequency:    0.8566284746
  - # 3
    frequency:    1.5670068505
  - # 4
    frequency:    4.4685950168
  - # 5
    frequency:    4.4685950168
  - # 6
    frequency:    4.7437914637

- q-position: [    0.0000000,    0.0000000,    0.1100000 ]
  distance:    0.1068005
  band:
  - # 1
    frequency:    0.7889901037
  - # 2
    frequency:    0.7889901037
  - # 3
    frequency:    1.4441737138
  - # 4
    frequency:    4.4552294009
  - # 5
    frequency:    4.4552294009
  - # 6
    frequency:    4.6893855122

- q-position: [    0.0000000,    0.0000000,    0.1000000 ]
  distance:    0.1095389
  band:
  - # 1
    frequency:    0.7203940098
  - # 2
    frequency:    0.7203940098
  - # 3
    frequency:    1.3193930942
  - # 4
    frequency:    4.4428487245
  - # 5
    frequency:    4.4428487245
  - # 6
    frequency:    4.6386119154

- q-position: [    0.0000000,    0.0000000,    0.0900000 ]
  distance:    0.1122774
  band:
  - # 1
    frequency:    0.6509183427
  - # 2
    frequency:    0.6509183427
  - # 3
    frequency:    1.1928093313
  - # 4
    frequency:    4.4315004480
  - # 5
    frequency:    4.4315004480
  - # 6
    frequency:    4.5917466409

- q-position: [    0.0000000,    0.0000000,    0.0800000 ]
  distance:    0.1150159
  band:
  - # 1
    frequency:    0.5806436982
  - # 2
    frequency:    0.5806436982
  - # 3
    frequency:    1.0645753249
  - # 4
    frequency:    4.4212279424
  - # 5
    frequency:    4.4212279424
  - # 6
    frequency:    4.5490497722

- q-position: [    0.0000000,    0.0000000,    0.0700000 ]
  distance:    0.1177543
  band:
  - # 1
    frequency:    0.5096529196
  - # 2
    frequency:    0.5096529196
  - # 3
    frequency:    0.9348520724
  - # 4
    frequency:    4.4120703555
  - # 5
    frequency:    4.4120703555
  - # 6
    frequency:    4.5107629445

- q-position: [    0.0000000,    0.0000000,    0.0600000 ]
  distance:    0.1204928
  band:
  - # 1
    frequency:    0.4380308801
  - # 2
    frequency:    0.4380308801
  - # 3
    frequency:    0.8038080791
  - # 4
    frequency:    4.4040624946
  - # 5
    frequency:    4.4040624946
  - # 6
    frequency:    4.4771068018

- q-position: [    0.0000000,    0.0000000,    0.0500000 ]
  distance:    0.1232313
  band:
  - # 1
    frequency:    0.3658642472
  - # 2
    frequency:    0.3658642472
  - # 3
    frequency:    0.6716186517
  - # 4
    frequency:    4.3972347257
  - # 5
    frequency:    4.3972347257
  - # 6
    frequency:    4.4482785269

- q-position: [    0.0000000,    0.0000000,    0.0400000 ]
  distance:    0.1259698
  band:
  - # 1
    frequency:    0.2932412196
  - # 2
    frequency:    0.2932412196
  - # 3
    frequency:    0.5384650860
  - # 4
    frequency:    4.3916128859
  - # 5
    frequency:    4.3916128859
  - # 6
    frequency:    4.4244495064

- q-position: [    0.0000000,    0.0000000,    0.0300000 ]
  distance:    0.1287082
  band:
  - # 1
    frequency:    0.2202512025
  - # 2
    frequency:    0.2202512025
  - # 3
    frequency:    0.4045337428
  - # 4
    frequency:    4.3872182115
  - # 5
    frequency:    4.3872182115
  - # 6
    frequency:    4.4057631977

- q-position: [    0.0000000,    0.0000000,    0.0200000 ]
  distance:    0.1314467
  band:
  - # 1
    frequency:    0.1469842457
  - # 2
    frequency:    0.1469842457
  - # 3
    frequency:    0.2700149324
  - # 4
    frequency:    4.3840672794
  - # 5
    frequency:    4.3840672794
  - # 6
    frequency:    4.3923332629

- q-position: [    0.0000000,    0.0000000,    0.0100000 ]
  distance:    0.1341852
  band:
  - # 1
    frequency:    0.0735286365
  - # 2
    frequency:    0.0735286365
  - # 3
    frequency:    0.1351007463
  - # 4
    frequency:    4.3821719623
  - # 5
    frequency:    4.3821719623
  - # 6
    frequency:    4.3842420387

- q-position: [    0.0000000,    0.0000000,    0.0000000 ]
  distance:    0.1369237
  band:
  - # 1
    frequency:   -0.0013754241
  - # 2
    frequency:   -0.0013754241
  - # 3
    frequency:   -0.0013754241
  - # 4
    frequency:    4.3815393963
  - # 5
    frequency:    4.3815393963
  - # 6
    frequency:    4.3815393963

- q-position: [    0.0000000,    0.0000000,    0.0000000 ]
  distance:    0.1369237
  band:
  - # 1
    frequency:   -0.0013754241
  - # 2
    frequency:   -0.0013754241
  - # 3
    frequency:   -0.0013754241
  - # 4
    frequency:    4.3815393963
  - # 5
    frequency:    4.3815393963
  - # 6
    frequency:    4.3815393963

- q-position: [    0.0100000,    0.0000000,    0.0000000 ]
  distance:    0.1396621
  band:
  - # 1
    frequency:    0.0735286365
  - # 2
    frequency:    0.0735286365
  - # 3
    frequency:    0.1351007463
  - # 4
    frequency:    4.3821719623
  - # 5
    frequency:    4.3821719623
  - # 6
    frequency:    4.3842420387

- q-position: [    0.0200000,    0.0000000,    0.0000000 ]
  distance:    0.1424006
  band:
  - # 1
    frequency:    0.1469842457
  - # 2
    frequency:    0.1469842457
  - # 3
    frequency:    0.2700149324
  - # 4
    frequency:    4.3840672794
  - # 5
    frequency:    4.3840672794
  - # 6
    frequency:    4.3923332629

- q-position: [    0.0300000,    0.0000000,    0.0000000 ]
  distance:    0.1451391
  band:
  - # 1
    frequency:    0.2202512025
  - # 2
    frequency:    0.2202512025
  - # 3
    frequency:    0.4045337428
  - # 4
    frequency:    4.3872182115
  - # 5
    frequency:    4.3872182115
  - # 6
    frequency:    4.4057631977

- q-position: [    0.0400000,    0.0000000,    0.0000000 ]
  distance:    0.1478776
  band:
  - # 1
    frequency:    0.2932412196
  - # 2
    frequency:    0.2932412196
  - # 3
    frequency:    0.5384650860
  - # 4
    frequency:    4.3916128859
  - # 5
    frequency:    4.3916128859
  - # 6
    frequency:    4.4244495064

- q-position: [    0.0500000,    0.0000000,    0.0000000 ]
  distance:    0.1506160
  band:
  - # 1
    frequency:    0.3658642472
  - # 2
    frequency:    0.3658642472
  - # 3
    frequency:    0.6716186517
  - # 4
    frequency:    4.3972347257
  - # 5
    frequency:    4.3972347257
  - # 6
    frequency:    4.4482785269

- q-position: [    0.0600000,    0.0000000,    0.0000000 ]
  distance:    0.1533545
  band:
  - # 1
    frequency:    0.4380308801
  - # 2
    frequency:    0.4380308801
  - # 3
    frequency:    0.8038080791
  - # 4
    frequency:    4.4040624946
  - # 5
    frequency:    4.4040624946
  - # 6
    frequency:    4.4771068018

- q-position: [    0.0700000,    0.0000000,    0.0000000 ]
  distance:    0.1560930
  band:
  - # 1
    frequency:    0.5096529196
  - # 2
    frequency:    0.5096529196
  - # 3
    frequency:    0.9348520724
  - # 4
    frequency:    4.4120703555
  - # 5
    frequency:    4.4120703555
  - # 6
    frequency:    4.5107629445

- q-position: [    0.0800000,    0.0000000,    0.0000000 ]
  distance:    0.1588314
  band:
  - # 1
    frequency:    0.5806436982
  - # 2
    frequency:    0.5806436982
  - # 3
    frequency:    1.0645753249
  - # 4
    frequency:    4.4212279424
  - # 5
    frequency:    4.4212279424
  - # 6
    frequency:    4.5490497722

- q-position: [    0.0900000,    0.0000000,    0.0000000 ]
  distance:    0.1615699
  band:
  - # 1
    frequency:    0.6509183427
  - # 2
    frequency:    0.6509183427
  - # 3
    frequency:    1.1928093313
  - # 4
    frequency:    4.4315004480
  - # 5
    frequency:    4.4315004480
  - # 6
    frequency:    4.5917466409

- q-position: [    0.1000000,    0.0000000,    0.0000000 ]
  distance:    0.1643084
  band:
  - # 1
    frequency:    0.7203940098
  - # 2
    frequency:    0.7203940098
  - # 3
    frequency:    1.3193930942
  - # 4
    frequency:    4.4428487245
  - # 5
    frequency:    4.4428487245
  - # 6
    frequency:    4.6386119154

- q-position: [    0.1100000,    0.0000000,    0.0000000 ]
  distance:    0.1670469
  band:
  - # 1
    frequency:    0.7889901037
  - # 2
    frequency:    0.7889901037
  - # 3
    frequency:    1.4441737138
  - # 4
    frequency:    4.4552294009
  - # 5
    frequency:    4.4552294009
  - # 6
    frequency:    4.6893855122

- q-position: [    0.1200000,    0.0000000,    0.0000000 ]
  distance:    0.1697853
  band:
  - # 1
    frequency:    0.8566284746
  - # 2
    frequency:    0.8566284746
  - # 3
    frequency:    1.5670068505
  - # 4
    frequency:    4.4685950168
  - # 5
    frequency:    4.4685950168
  - # 6
    frequency:    4.7437914637

- q-position: [    0.1300000,    0.0000000,    0.0000000 ]
  distance:    0.1725238
  band:
  - # 1
    frequency:    0.9232336000
  - # 2
    frequency:    0.9232336000
  - # 3
    frequency:    1.6877570510
  - # 4
    frequency:    4.4828941715
  - # 5
    frequency:    4.4828941715
  - # 6
    frequency:    4.8015404589

- q-position: [    0.1400000,    0.0000000,    0.0000000 ]
  distance:    0.1752623
  band:
  - # 1
    frequency:    0.9887327460
  - # 2
    frequency:    0.9887327460
  - # 3
    frequency:    1.8062979304
  - # 4
    frequency:    4.4980716919
  - # 5
    frequency:    4.4980716919
  - # 6
    frequency:    4.8623323247

- q-position: [    0.1500000,    0.0000000,    0.0000000 ]
  distance:    0.1780008
  band:
  - # 1
    frequency:    1.0530561081
  - # 2
    frequency:    1.0530561081
  - # 3
    frequency:    1.9225122102
  - # 4
    frequency:    4.5140688170
  - # 5
    frequency:    4.5140688170
  - # 6
    frequency:    4.9258584225

- q-position: [    0.1600000,    0.0000000,    0.0000000 ]
  distance:    0.1807392
  band:
  - # 1
    frequency:    1.1161369308
  - # 2
    frequency:    1.1161369308
  - # 3
    frequency:    2.0362916139
  - # 4
    frequency:    4.5308234006
  - # 5
    frequency:    4.5308234006
  - # 6
    frequency:    4.9918039392

- q-position: [    0.1700000,    0.0000000,    0.0000000 ]
  distance:    0.1834777
  band:
  - # 1
    frequency:    1.1779116036
  - # 2
    frequency:    1.1779116036
  - # 3
    frequency:    2.1475366288
  - # 4
    frequency:    4.5482701328
  - # 5
    frequency:    4.5482701328
  - # 6
    frequency:    5.0598500586

- q-position: [    0.1800000,    0.0000000,    0.0000000 ]
  distance:    0.1862162
  band:
  - # 1
    frequency:    1.2383197337
  - # 2
    frequency:    1.2383197337
  - # 3
    frequency:    2.2561561483
  - # 4
    frequency:    4.5663407786
  - # 5
    frequency:    4.5663407786
  - # 6
    frequency:    5.1296760037

- q-position: [    0.1900000,    0.0000000,    0.0000000 ]
  distance:    0.1889547
  band:
  - # 1
    frequency:    1.2973041948
  - # 2
    frequency:    1.2973041948
  - # 3
    frequency:    2.3620670095
  - # 4
    frequency:    4.5849644349
  - # 5
    frequency:    4.5849644349
  - # 6
    frequency:    5.2009609411

- q-position: [    0.2000000,    0.0000000,    0.0000000 ]
  distance:    0.1916931
  band:
  - # 1
    frequency:    1.3548111514
  - # 2
    frequency:    1.3548111514
  - # 3
    frequency:    2.4651934498
  - # 4
    frequency:    4.6040678041
  - # 5
    frequency:    4.6040678041
  - # 6
    frequency:    5.2733857435

- q-position: [    0.2100000,    0.0000000,    0.0000000 ]
  distance:    0.1944316
  band:
  - # 1
    frequency:    1.4107900597
  - # 2
    frequency:    1.4107900597
  - # 3
    frequency:    2.5654665035
  - # 4
    frequency:    4.6235754844
  - # 5
    frequency:    4.6235754844
  - # 6
    frequency:    5.3466346051

- q-position: [    0.2200000,    0.0000000,    0.0000000 ]
  distance:    0.1971701
  band:
  - # 1
    frequency:    1.4651936445
  - # 2
    frequency:    1.4651936445
  - # 3
    frequency:    2.6628233621
  - # 4
    frequency:    4.6434102749
  - # 5
    frequency:    4.6434102749
  - # 6
    frequency:    5.4203965069

- q-position: [    0.2300000,    0.0000000,    0.0000000 ]
  distance:    0.1999085
  band:
  - # 1
    frequency:    1.5179778545
  - # 2
    frequency:    1.5179778545
  - # 3
    frequency:    2.7572067218
  - # 4
    frequency:    4.6634934938
  - # 5
    frequency:    4.6634934938
  - # 6
    frequency:    5.4943665316

- q-position: [    0.2400000,    0.0000000,    0.0000000 ]
  distance:    0.2026470
  band:
  - # 1
    frequency:    1.5691017965
  - # 2
    frequency:    1.5691017965
  - # 3
    frequency:    2.8485641385
  - # 4
    frequency:    4.6837453086
  - # 5
    frequency:    4.6837453086
  - # 6
    frequency:    5.5682470270

- q-position: [    0.2500000,    0.0000000,    0.0000000 ]
  distance:    0.2053855
  band:
  - # 1
    frequency:    1.6185276506
  - # 2
    frequency:    1.6185276506
  - # 3
    frequency:    2.9368474107
  - # 4
    frequency:    4.7040850757
  - # 5
    frequency:    4.7040850757
  - # 6
    frequency:    5.6417486197

- q-position: [    0.2600000,    0.0000000,    0.0000000 ]
  distance:    0.2081240
  band:
  - # 1
    frequency:    1.6662205682
  - # 2
    frequency:    1.6662205682
  - # 3
    frequency:    3.0220120022
  - # 4
    frequency:    4.7244316869
  - # 5
    frequency:    4.7244316869
  - # 6
    frequency:    5.7145910838

- q-position: [    0.2700000,    0.0000000,    0.0000000 ]
  distance:    0.2108624
  band:
  - # 1
    frequency:    1.7121485556
  - # 2
    frequency:    1.7121485556
  - # 3
    frequency:    3.1040165203
  - # 4
    frequency:    4.7447039211
  - # 5
    frequency:    4.7447039211
  - # 6
    frequency:    5.7865040701

- q-position: [    0.2800000,    0.0000000,    0.0000000 ]
  distance:    0.2136009
  band:
  - # 1
    frequency:    1.7562823453
  - # 2
    frequency:    1.7562823453
  - # 3
    frequency:    3.1828222532
  - # 4
    frequency:    4.7648207979
  - # 5
    frequency:    4.7648207979
  - # 6
    frequency:    5.8572277023

- q-position: [    0.2900000,    0.0000000,    0.0000000 ]
  distance:    0.2163394
  band:
  - # 1
    frequency:    1.7985952570
  - # 2
    frequency:    1.7985952570
  - # 3
    frequency:    3.2583927746
  - # 4
    frequency:    4.7847019299
  - # 5
    frequency:    4.7847019299
  - # 6
    frequency:    5.9265130513

- q-position: [    0.3000000,    0.0000000,    0.0000000 ]
  distance:    0.2190779
  band:
  - # 1
    frequency:    1.8390630523
  - # 2
    frequency:    1.8390630523
  - # 3
    frequency:    3.3306936140
  - # 4
    frequency:    4.8042678733
  - # 5
    frequency:    4.8042678733
  - # 6
    frequency:    5.9941224968

- q-position: [    0.3100000,    0.0000000,    0.0000000 ]
  distance:    0.2218163
  band:
  - # 1
    frequency:    1.8776637844
  - # 2
    frequency:    1.8776637844
  - # 3
    frequency:    3.3996919929
  - # 4
    frequency:    4.8234404712
  - # 5
    frequency:    4.8234404712
  - # 6
    frequency:    6.0598299883

- q-position: [    0.3200000,    0.0000000,    0.0000000 ]
  distance:    0.2245548
  band:
  - # 1
    frequency:    1.9143776456
  - # 2
    frequency:    1.9143776456
  - # 3
    frequency:    3.4653566226
  - # 4
    frequency:    4.8421431897
  - # 5
    frequency:    4.8421431897
  - # 6
    frequency:    6.1234212179

- q-position: [    0.3300000,    0.0000000,    0.0000000 ]
  distance:    0.2272933
  band:
  - # 1
    frequency:    1.9491868160
  - # 2
    frequency:    1.9491868160
  - # 3
    frequency:    3.5276575590
  - # 4
    frequency:    4.8603014432
  - # 5
    frequency:    4.8603014432
  - # 6
    frequency:    6.1846937160

- q-position: [    0.3400000,    0.0000000,    0.0000000 ]
  distance:    0.2300318
  band:
  - # 1
    frequency:    1.9820753130
  - # 2
    frequency:    1.9820753130
  - # 3
    frequency:    3.5865661083
  - # 4
    frequency:    4.8778429072
  - # 5
    frequency:    4.8778429072
  - # 6
    frequency:    6.2434568829

- q-position: [    0.3500000,    0.0000000,    0.0000000 ]
  distance:    0.2327702
  band:
  - # 1
    frequency:    2.0130288464
  - # 2
    frequency:    2.0130288464
  - # 3
    frequency:    3.6420547766
  - # 4
    frequency:    4.8946978173
  - # 5
    frequency:    4.8946978173
  - # 6
    frequency:    6.2995319675

- q-position: [    0.3600000,    0.0000000,    0.0000000 ]
  distance:    0.2355087
  band:
  - # 1
    frequency:    2.0420346785
  - # 2
    frequency:    2.0420346785
  - # 3
    frequency:    3.6940972569
  - # 4
    frequency:    4.9107992519
  - # 5
    frequency:    4.9107992519
  - # 6
    frequency:    6.3527520028

- q-position: [    0.3700000,    0.0000000,    0.0000000 ]
  distance:    0.2382472
  band:
  - # 1
    frequency:    2.0690814920
  - # 2
    frequency:    2.0690814920
  - # 3
    frequency:    3.7426684470
  - # 4
    frequency:    4.9260833992
  - # 5
    frequency:    4.9260833992
  - # 6
    frequency:    6.4029617097

- q-position: [    0.3800000,    0.0000000,    0.0000000 ]
  distance:    0.2409856
  band:
  - # 1